
     Program PWSCF v.7.4.1 starts on 28Apr2025 at 23:42:42 

     This program is part of the open-source Quantum ESPRESSO suite
     for quantum simulation of materials; please cite
         "P. Giannozzi et al., J. Phys.:Condens. Matter 21 395502 (2009);
         "P. Giannozzi et al., J. Phys.:Condens. Matter 29 465901 (2017);
         "P. Giannozzi et al., J. Chem. Phys. 152 154105 (2020);
          URL http://www.quantum-espresso.org", 
     in publications or presentations arising from this work. More details at
     http://www.quantum-espresso.org/quote

     Parallel version (MPI), running on     1 processors

     MPI processes distributed on     1 nodes
     0 MiB available memory on the printing compute node when the environment starts

     Waiting for input...
     Reading input from standard input

     Current dimensions of program PWSCF are:
     Max number of different atomic species (ntypx) = 10
     Max number of k-points (npk) =  40000
     Max angular momentum in pseudopotentials (lmaxx) =  4
     file Si.pbe-nd-rrkjus.UPF: wavefunction(s)  4S renormalized
     Found identity + (  0.5000  0.5000  0.5000) symmetry
     This is a supercell, fractional translations are disabled

     Subspace diagonalization in iterative solution of the eigenvalue problem:
     a serial algorithm will be used


     G-vector sticks info
     --------------------
     sticks:   dense  smooth     PW     G-vecs:    dense   smooth      PW
     Sum         933     373    121                21079     5377    1021

     Using Slab Decomposition



     bravais-lattice index     =            1
     lattice parameter (alat)  =       5.3822  a.u.
     unit-cell volume          =     155.9091 (a.u.)^3
     number of atoms/cell      =            2
     number of atomic types    =            1
     number of electrons       =        16.00
     number of Kohn-Sham states=           12
     kinetic-energy cutoff     =      40.0000  Ry
     charge density cutoff     =     400.0000  Ry
     scf convergence threshold =      1.0E-06
     mixing beta               =       0.4000
     number of iterations used =            8  plain     mixing
     Exchange-correlation=  SLA  PW   PBE  PBE
                           (   1   4   3   4   0   0   0)

     celldm(1)=   5.382167  celldm(2)=   0.000000  celldm(3)=   0.000000
     celldm(4)=   0.000000  celldm(5)=   0.000000  celldm(6)=   0.000000

     crystal axes: (cart. coord. in units of alat)
               a(1) = (   1.000000   0.000000   0.000000 )  
               a(2) = (   0.000000   1.000000   0.000000 )  
               a(3) = (   0.000000   0.000000   1.000000 )  

     reciprocal axes: (cart. coord. in units 2 pi/alat)
               b(1) = (  1.000000  0.000000  0.000000 )  
               b(2) = (  0.000000  1.000000  0.000000 )  
               b(3) = (  0.000000  0.000000  1.000000 )  


     PseudoPot. # 1 for Si read from file:
     ./Si.pbe-nd-rrkjus.UPF
     MD5 check sum: 398036227a04b607635f6f5e8dfd8242
     Pseudo is Ultrasoft + core correction, Zval =  8.0
     Generated by new atomic code, or converted to UPF format
     Using radial grid of  957 points,  6 beta functions with: 
                l(1) =   0
                l(2) =   0
                l(3) =   1
                l(4) =   1
                l(5) =   2
                l(6) =   2
     Q(r) pseudized with 0 coefficients 


     atomic species   valence    mass     pseudopotential
     Si                8.00    55.84500     Si( 1.00)

     Starting magnetic structure 
     atomic species   magnetization
     Si              0.200

     48 Sym. Ops., with inversion, found



   Cartesian axes

     site n.     atom                  positions (alat units)
         1        Si     tau(   1) = (   0.0000000   0.0000000   0.0000000  )
         2        Si     tau(   2) = (   0.4999993   0.4999993   0.4999993  )

     number of k points=    35  Gaussian smearing, width (Ry)=  0.0100
                       cart. coord. in units 2pi/alat
        k(    1) = (   0.0000000   0.0000000   0.0000000), wk =   0.0019531
        k(    2) = (   0.0000000   0.0000000   0.1250000), wk =   0.0117188
        k(    3) = (   0.0000000   0.0000000   0.2500000), wk =   0.0117188
        k(    4) = (   0.0000000   0.0000000   0.3750000), wk =   0.0117188
        k(    5) = (   0.0000000   0.0000000  -0.5000000), wk =   0.0058594
        k(    6) = (   0.0000000   0.1250000   0.1250000), wk =   0.0234375
        k(    7) = (   0.0000000   0.1250000   0.2500000), wk =   0.0468750
        k(    8) = (   0.0000000   0.1250000   0.3750000), wk =   0.0468750
        k(    9) = (   0.0000000   0.1250000  -0.5000000), wk =   0.0234375
        k(   10) = (   0.0000000   0.2500000   0.2500000), wk =   0.0234375
        k(   11) = (   0.0000000   0.2500000   0.3750000), wk =   0.0468750
        k(   12) = (   0.0000000   0.2500000  -0.5000000), wk =   0.0234375
        k(   13) = (   0.0000000   0.3750000   0.3750000), wk =   0.0234375
        k(   14) = (   0.0000000   0.3750000  -0.5000000), wk =   0.0234375
        k(   15) = (   0.0000000  -0.5000000  -0.5000000), wk =   0.0058594
        k(   16) = (   0.1250000   0.1250000   0.1250000), wk =   0.0156250
        k(   17) = (   0.1250000   0.1250000   0.2500000), wk =   0.0468750
        k(   18) = (   0.1250000   0.1250000   0.3750000), wk =   0.0468750
        k(   19) = (   0.1250000   0.1250000  -0.5000000), wk =   0.0234375
        k(   20) = (   0.1250000   0.2500000   0.2500000), wk =   0.0468750
        k(   21) = (   0.1250000   0.2500000   0.3750000), wk =   0.0937500
        k(   22) = (   0.1250000   0.2500000  -0.5000000), wk =   0.0468750
        k(   23) = (   0.1250000   0.3750000   0.3750000), wk =   0.0468750
        k(   24) = (   0.1250000   0.3750000  -0.5000000), wk =   0.0468750
        k(   25) = (   0.1250000  -0.5000000  -0.5000000), wk =   0.0117188
        k(   26) = (   0.2500000   0.2500000   0.2500000), wk =   0.0156250
        k(   27) = (   0.2500000   0.2500000   0.3750000), wk =   0.0468750
        k(   28) = (   0.2500000   0.2500000  -0.5000000), wk =   0.0234375
        k(   29) = (   0.2500000   0.3750000   0.3750000), wk =   0.0468750
        k(   30) = (   0.2500000   0.3750000  -0.5000000), wk =   0.0468750
        k(   31) = (   0.2500000  -0.5000000  -0.5000000), wk =   0.0117188
        k(   32) = (   0.3750000   0.3750000   0.3750000), wk =   0.0156250
        k(   33) = (   0.3750000   0.3750000  -0.5000000), wk =   0.0234375
        k(   34) = (   0.3750000  -0.5000000  -0.5000000), wk =   0.0117188
        k(   35) = (  -0.5000000  -0.5000000  -0.5000000), wk =   0.0019531

     Dense  grid:    21079 G-vectors     FFT dimensions: (  36,  36,  36)

     Smooth grid:     5377 G-vectors     FFT dimensions: (  24,  24,  24)

     Estimated max dynamical RAM per process >      95.82 MB
     Generating pointlists ...
     new r_m :   0.3572 (alat units)  1.9227 (a.u.) for type    1

     Initial potential from superposition of free atoms

     starting charge      15.9987, renormalised to      16.0000
     Starting wfcs are   12 randomized atomic wfcs

     total cpu time spent up to now is        0.5 secs

     Self-consistent Calculation

     iteration #  1     ecut=    40.00 Ry     beta= 0.40
     Davidson diagonalization with overlap
     ethr =  1.00E-02,  avg # of iterations =  3.7

     total cpu time spent up to now is        1.1 secs

     total energy              =    -111.42690699 Ry
     estimated scf accuracy    <       0.64301171 Ry

     total magnetization       =     3.39 Bohr mag/cell
     absolute magnetization    =     3.39 Bohr mag/cell

     iteration #  2     ecut=    40.00 Ry     beta= 0.40
     Davidson diagonalization with overlap
     ethr =  4.02E-03,  avg # of iterations =  2.0

     total cpu time spent up to now is        1.7 secs

     total energy              =    -111.57715165 Ry
     estimated scf accuracy    <       0.02681394 Ry

     total magnetization       =     3.91 Bohr mag/cell
     absolute magnetization    =     3.92 Bohr mag/cell

     iteration #  3     ecut=    40.00 Ry     beta= 0.40
     Davidson diagonalization with overlap
     ethr =  1.68E-04,  avg # of iterations =  2.6

     total cpu time spent up to now is        2.2 secs

     total energy              =    -111.59032746 Ry
     estimated scf accuracy    <       0.01883899 Ry

     total magnetization       =     4.07 Bohr mag/cell
     absolute magnetization    =     4.13 Bohr mag/cell

     iteration #  4     ecut=    40.00 Ry     beta= 0.40
     Davidson diagonalization with overlap
     ethr =  1.18E-04,  avg # of iterations =  2.7

     total cpu time spent up to now is        2.8 secs

     total energy              =    -111.60538320 Ry
     estimated scf accuracy    <       0.03321650 Ry

     total magnetization       =     4.42 Bohr mag/cell
     absolute magnetization    =     4.72 Bohr mag/cell

     iteration #  5     ecut=    40.00 Ry     beta= 0.40
     Davidson diagonalization with overlap
     ethr =  1.18E-04,  avg # of iterations =  1.1

     total cpu time spent up to now is        3.3 secs

     total energy              =    -111.60002807 Ry
     estimated scf accuracy    <       0.01795515 Ry

     total magnetization       =     4.46 Bohr mag/cell
     absolute magnetization    =     4.76 Bohr mag/cell

     iteration #  6     ecut=    40.00 Ry     beta= 0.40
     Davidson diagonalization with overlap
     ethr =  1.12E-04,  avg # of iterations =  3.3

     total cpu time spent up to now is        4.0 secs

     total energy              =    -111.60548447 Ry
     estimated scf accuracy    <       0.02098872 Ry

     total magnetization       =     4.62 Bohr mag/cell
     absolute magnetization    =     4.87 Bohr mag/cell

     iteration #  7     ecut=    40.00 Ry     beta= 0.40
     Davidson diagonalization with overlap
     ethr =  1.12E-04,  avg # of iterations =  1.6

     total cpu time spent up to now is        4.5 secs

     total energy              =    -111.60558777 Ry
     estimated scf accuracy    <       0.00315185 Ry

     total magnetization       =     4.66 Bohr mag/cell
     absolute magnetization    =     4.94 Bohr mag/cell

     iteration #  8     ecut=    40.00 Ry     beta= 0.40
     Davidson diagonalization with overlap
     ethr =  1.97E-05,  avg # of iterations =  3.2

     total cpu time spent up to now is        5.3 secs

     total energy              =    -111.60705616 Ry
     estimated scf accuracy    <       0.00095572 Ry

     total magnetization       =     4.64 Bohr mag/cell
     absolute magnetization    =     4.98 Bohr mag/cell

     iteration #  9     ecut=    40.00 Ry     beta= 0.40
     Davidson diagonalization with overlap
     ethr =  5.97E-06,  avg # of iterations =  1.1

     total cpu time spent up to now is        5.8 secs

     total energy              =    -111.60686827 Ry
     estimated scf accuracy    <       0.00050641 Ry

     total magnetization       =     4.66 Bohr mag/cell
     absolute magnetization    =     4.99 Bohr mag/cell

     iteration # 10     ecut=    40.00 Ry     beta= 0.40
     Davidson diagonalization with overlap
     ethr =  3.17E-06,  avg # of iterations =  2.2

     total cpu time spent up to now is        6.3 secs

     total energy              =    -111.60697774 Ry
     estimated scf accuracy    <       0.00001474 Ry

     total magnetization       =     4.69 Bohr mag/cell
     absolute magnetization    =     5.01 Bohr mag/cell

     iteration # 11     ecut=    40.00 Ry     beta= 0.40
     Davidson diagonalization with overlap
     ethr =  9.22E-08,  avg # of iterations =  5.1

     total cpu time spent up to now is        7.2 secs

     total energy              =    -111.60700103 Ry
     estimated scf accuracy    <       0.00000556 Ry

     total magnetization       =     4.67 Bohr mag/cell
     absolute magnetization    =     4.99 Bohr mag/cell

     iteration # 12     ecut=    40.00 Ry     beta= 0.40
     Davidson diagonalization with overlap
     ethr =  3.48E-08,  avg # of iterations =  2.5

     total cpu time spent up to now is        7.7 secs

     total energy              =    -111.60700095 Ry
     estimated scf accuracy    <       0.00000142 Ry

     total magnetization       =     4.67 Bohr mag/cell
     absolute magnetization    =     4.99 Bohr mag/cell

     iteration # 13     ecut=    40.00 Ry     beta= 0.40
     Davidson diagonalization with overlap
     ethr =  8.85E-09,  avg # of iterations =  4.2

     Magnetic moment per site  (integrated on atomic sphere of radius R)
     atom   1 (R=0.357)  charge=  6.4674  magn=  2.4046
     atom   2 (R=0.357)  charge=  6.4674  magn=  2.4047

     total cpu time spent up to now is        8.4 secs

     End of self-consistent calculation

 ------ SPIN UP ------------


          k = 0.0000 0.0000 0.0000 (   691 PWs)   bands (ev):

     4.9865   8.4479   8.4479  10.8773  10.8773  10.8773  12.0783  12.0783
    13.2281  13.2281  13.2281  23.2110

          k = 0.0000 0.0000 0.1250 (   667 PWs)   bands (ev):

     5.3070   8.5811   8.5865  10.8776  10.8776  10.9628  11.9395  12.1326
    12.9798  12.9798  13.1349  21.2593

          k = 0.0000 0.0000 0.2500 (   671 PWs)   bands (ev):

     6.2191   8.9109   8.9635  10.9070  10.9070  11.2081  11.5422  12.2896
    12.4070  12.4070  12.8707  18.1010

          k = 0.0000 0.0000 0.3750 (   667 PWs)   bands (ev):

     7.5285   9.1250   9.5446  10.9445  11.0328  11.0328  11.5800  11.7966
    11.7966  12.4800  12.5972  15.2878

          k = 0.0000 0.0000-0.5000 (   682 PWs)   bands (ev):

     8.7186   8.7187  10.2407  10.2409  11.3210  11.3210  11.3211  11.3211
    12.0260  12.0261  13.4046  13.4047

          k = 0.0000 0.1250 0.1250 (   683 PWs)   bands (ev):

     5.6178   8.6962   8.7339  10.7148  10.8523  11.2081  11.9443  12.0926
    12.5606  12.7364  13.2661  21.3570

          k = 0.0000 0.1250 0.2500 (   679 PWs)   bands (ev):

     6.4937   8.9848   9.1150  10.6172  10.8103  11.5681  11.7092  11.9300
    12.2089  12.2301  13.1697  18.4473

          k = 0.0000 0.1250 0.3750 (   664 PWs)   bands (ev):

     7.7156   9.1739   9.6297  10.6631  10.6725  11.3340  11.4858  11.7521
    11.9936  12.5547  12.8659  15.5681

          k = 0.0000 0.1250-0.5000 (   660 PWs)   bands (ev):

     8.7814   8.7814  10.2112  10.2113  10.8971  10.8971  11.5432  11.5433
    12.4468  12.4469  13.5042  13.5043

          k = 0.0000 0.2500 0.2500 (   668 PWs)   bands (ev):

     7.2232   9.0584   9.5861  10.3368  10.7826  11.2637  11.8647  11.9169
    12.0688  12.1436  13.3585  18.4312

          k = 0.0000 0.2500 0.3750 (   668 PWs)   bands (ev):

     8.0836   8.9978  10.1697  10.2301  10.7035  10.9072  11.7486  11.9253
    12.4255  12.5614  13.2801  16.0725

          k = 0.0000 0.2500-0.5000 (   674 PWs)   bands (ev):

     8.6911   8.6911  10.3476  10.3476  10.6771  10.6772  11.8742  11.8742
    12.9883  12.9884  13.7468  13.7469

          k = 0.0000 0.3750 0.3750 (   670 PWs)   bands (ev):

     8.3121   8.7055   9.9772  10.2190  10.9597  11.8552  11.8831  12.2190
    12.2772  13.0428  13.4517  15.6954

          k = 0.0000 0.3750-0.5000 (   658 PWs)   bands (ev):

     8.4710   8.4710   9.9675   9.9675  11.6466  11.6468  12.0814  12.0815
    13.3600  13.3600  13.9333  13.9333

          k = 0.0000-0.5000-0.5000 (   656 PWs)   bands (ev):

     8.3746   8.3746   9.8332   9.8332  12.1356  12.1356  12.2578  12.2580
    13.4906  13.4906  13.9300  13.9301

          k = 0.1250 0.1250 0.1250 (   679 PWs)   bands (ev):

     5.9216   8.8437   8.8437  10.6789  10.6789  11.4661  12.0131  12.0131
    12.0364  13.0195  13.0195  21.8653

          k = 0.1250 0.1250 0.2500 (   675 PWs)   bands (ev):

     6.7698   9.1527   9.1775  10.5411  10.5820  11.3946  11.8050  11.9026
    12.1889  12.4720  13.0670  18.8290

          k = 0.1250 0.1250 0.3750 (   659 PWs)   bands (ev):

     7.9228   9.3320   9.5979  10.4062  10.6172  10.9772  11.5952  11.9350
    12.2793  12.6365  12.8633  15.9284

          k = 0.1250 0.1250-0.5000 (   664 PWs)   bands (ev):

     8.9025   8.9026  10.0656  10.0656  10.8234  10.8234  11.6098  11.6098
    12.5459  12.5460  13.7945  13.7946

          k = 0.1250 0.2500 0.2500 (   668 PWs)   bands (ev):

     7.4998   9.2511   9.6255  10.2804  10.4966  10.7887  11.9574  12.1317
    12.2390  12.4776  13.0928  18.9760

          k = 0.1250 0.2500 0.3750 (   662 PWs)   bands (ev):

     8.3361   9.2011  10.0423  10.1515  10.5398  10.6268  11.9075  11.9540
    12.3098  13.0009  13.1821  16.6148

          k = 0.1250 0.2500-0.5000 (   668 PWs)   bands (ev):

     8.8959   8.8959  10.1146  10.1146  10.7040  10.7041  11.8950  11.8950
    12.6675  12.6676  14.4296  14.4296

          k = 0.1250 0.3750 0.3750 (   669 PWs)   bands (ev):

     8.5593   8.9016   9.9397  10.1040  10.8717  11.3328  11.9946  12.1016
    12.2249  13.0240  13.9254  16.5081

          k = 0.1250 0.3750-0.5000 (   666 PWs)   bands (ev):

     8.6839   8.6839   9.9198   9.9198  11.4685  11.4686  12.0998  12.0998
    12.6585  12.6585  15.0721  15.0722

          k = 0.1250-0.5000-0.5000 (   656 PWs)   bands (ev):

     8.5870   8.5870   9.8089   9.8089  12.1624  12.1624  12.2628  12.2630
    12.3141  12.3141  15.3922  15.3922

          k = 0.2500 0.2500 0.2500 (   675 PWs)   bands (ev):

     8.2205   9.7219   9.7219  10.1486  10.1486  10.1766  12.0920  12.0920
    12.5839  12.5839  13.2178  20.3272

          k = 0.2500 0.2500 0.3750 (   658 PWs)   bands (ev):

     8.9295   9.5813   9.8264  10.0134  10.2291  10.3634  12.0370  12.1927
    12.2603  12.6437  14.1249  17.7156

          k = 0.2500 0.2500-0.5000 (   652 PWs)   bands (ev):

     9.2517   9.2517   9.9135   9.9135  10.5647  10.5648  12.0328  12.0328
    12.4647  12.4649  15.5212  15.5212

          k = 0.2500 0.3750 0.3750 (   664 PWs)   bands (ev):

     9.2106   9.3434   9.8659   9.9576  10.5215  10.5974  12.1629  12.1960
    12.2358  12.5268  15.2089  18.1613

          k = 0.2500 0.3750-0.5000 (   662 PWs)   bands (ev):

     9.2064   9.2065   9.8544   9.8545  10.8874  10.8874  12.1760  12.1761
    12.3596  12.3597  16.6387  16.6388

          k = 0.2500-0.5000-0.5000 (   660 PWs)   bands (ev):

     9.1349   9.1350   9.7719   9.7719  11.2466  11.2466  12.2239  12.2240
    12.2750  12.2751  17.3117  17.3117

          k = 0.3750 0.3750 0.3750 (   660 PWs)   bands (ev):

     9.5057   9.8439   9.8439  10.0715  10.2328  10.2328  12.2425  12.2425
    12.3111  12.3111  16.6041  20.1808

          k = 0.3750 0.3750-0.5000 (   666 PWs)   bands (ev):

     9.5908   9.5908   9.9566   9.9567  10.4247  10.4248  12.2528  12.2529
    12.3000  12.3001  18.2722  18.2722

          k = 0.3750-0.5000-0.5000 (   656 PWs)   bands (ev):

     9.7453   9.7454   9.8102   9.8102  10.4864  10.4864  12.2761  12.2762
    12.2871  12.2873  19.4734  19.4734

          k =-0.5000-0.5000-0.5000 (   672 PWs)   bands (ev):

    10.0223  10.0223  10.0223  10.0225  10.0225  10.0225  12.2921  12.2921
    12.2923  12.2923  21.8505  21.8505

 ------ SPIN DOWN ----------


          k = 0.0000 0.0000 0.0000 (   691 PWs)   bands (ev):

     5.0595  10.4780  10.4780  13.1863  13.1863  13.1863  15.1846  15.1846
    15.8748  15.8748  15.8748  23.4063

          k = 0.0000 0.0000 0.1250 (   667 PWs)   bands (ev):

     5.3819  10.5790  10.6412  13.1719  13.1719  13.2828  14.9951  15.2557
    15.5277  15.5277  15.7668  21.7961

          k = 0.0000 0.0000 0.2500 (   671 PWs)   bands (ev):

     6.3107  10.7231  11.1135  13.1671  13.1671  13.5603  14.4556  14.7890
    14.7890  15.4382  15.4615  19.1263

          k = 0.0000 0.0000 0.3750 (   667 PWs)   bands (ev):

     7.7141  10.4260  11.8419  13.2618  13.2618  13.6556  13.9825  14.0671
    14.0671  15.0114  15.6776  17.0565

          k = 0.0000 0.0000-0.5000 (   682 PWs)   bands (ev):

     9.2853   9.2853  12.7332  12.7332  13.5462  13.5462  13.5463  13.5463
    14.4911  14.4911  16.0568  16.0569

          k = 0.0000 0.1250 0.1250 (   683 PWs)   bands (ev):

     5.6968  10.7312  10.7435  12.9814  13.1264  13.5541  14.9893  15.0135
    15.1926  15.2021  15.9184  21.9943

          k = 0.0000 0.1250 0.2500 (   679 PWs)   bands (ev):

     6.6005  10.8703  11.1741  12.8444  13.0348  13.9560  14.2503  14.5500
    14.6314  15.3653  15.7997  19.5101

          k = 0.0000 0.1250 0.3750 (   664 PWs)   bands (ev):

     7.9528  10.5472  11.8131  12.8601  12.9061  13.5648  14.1067  14.1377
    14.4354  15.4392  15.6258  17.2797

          k = 0.0000 0.1250-0.5000 (   660 PWs)   bands (ev):

     9.4462   9.4463  12.4935  12.4935  13.0902  13.0902  13.9506  13.9506
    14.9529  14.9529  16.0774  16.0774

          k = 0.0000 0.2500 0.2500 (   668 PWs)   bands (ev):

     7.4151  10.9703  11.4935  12.5108  12.8358  13.4841  14.2364  14.5229
    14.8476  15.2724  16.0247  19.5010

          k = 0.0000 0.2500 0.3750 (   668 PWs)   bands (ev):

     8.5706  10.5846  12.0537  12.3665  12.7219  12.8565  14.2916  14.7033
    15.0862  15.4845  15.9280  17.5920

          k = 0.0000 0.2500-0.5000 (   674 PWs)   bands (ev):

     9.7364   9.7364  12.4741  12.4741  12.5220  12.5220  14.5274  14.5274
    15.5819  15.5819  16.0751  16.0751

          k = 0.0000 0.3750 0.3750 (   670 PWs)   bands (ev):

     9.2820  10.2733  12.0703  12.3178  12.7390  12.9976  14.6192  14.9871
    15.3857  15.6468  16.1321  17.0555

          k = 0.0000 0.3750-0.5000 (   658 PWs)   bands (ev):

     9.8387   9.8387  12.0465  12.0465  13.2423  13.2423  14.9211  14.9211
    15.8365  15.8366  16.0215  16.0215

          k = 0.0000-0.5000-0.5000 (   656 PWs)   bands (ev):

     9.8325   9.8325  11.8956  11.8956  13.9279  13.9279  15.0536  15.0536
    15.4467  15.4467  16.1770  16.1770

          k = 0.1250 0.1250 0.1250 (   679 PWs)   bands (ev):

     6.0057  10.8635  10.8635  12.9279  12.9279  13.8284  14.3281  15.0833
    15.0833  15.5860  15.5860  22.5963

          k = 0.1250 0.1250 0.2500 (   675 PWs)   bands (ev):

     6.8886  11.0337  11.2348  12.7308  12.7934  13.5732  14.2956  14.7574
    14.9189  15.3088  15.6625  19.9405

          k = 0.1250 0.1250 0.3750 (   659 PWs)   bands (ev):

     8.1974  10.7014  11.7596  12.6015  12.7257  13.1535  14.3512  14.3561
    14.8163  15.4666  15.5956  17.6183

          k = 0.1250 0.1250-0.5000 (   664 PWs)   bands (ev):

     9.6255   9.6255  12.2717  12.2717  12.9185  12.9185  14.1422  14.1422
    15.2101  15.2101  16.2041  16.2041

          k = 0.1250 0.2500 0.2500 (   668 PWs)   bands (ev):

     7.6956  11.1740  11.5321  12.4271  12.5817  12.8813  14.7233  14.8825
    14.9369  15.2453  15.7086  20.1072

          k = 0.1250 0.2500 0.3750 (   662 PWs)   bands (ev):

     8.8304  10.7975  11.9325  12.2510  12.4818  12.6071  14.5489  14.7791
    15.3570  15.6204  15.6534  18.1640

          k = 0.1250 0.2500-0.5000 (   668 PWs)   bands (ev):

     9.9604   9.9604  12.1412  12.1412  12.5408  12.5408  14.6134  14.6134
    15.4908  15.4908  16.5664  16.5664

          k = 0.1250 0.3750 0.3750 (   669 PWs)   bands (ev):

     9.5466  10.4909  11.9983  12.1560  12.5816  12.6453  14.7717  15.0352
    15.3903  15.7227  16.1714  17.9208

          k = 0.1250 0.3750-0.5000 (   666 PWs)   bands (ev):

    10.0779  10.0779  11.9579  11.9579  12.9151  12.9151  14.9819  14.9819
    15.5358  15.5358  16.9052  16.9052

          k = 0.1250-0.5000-0.5000 (   656 PWs)   bands (ev):

    10.0684  10.0684  11.8345  11.8345  13.3782  13.3782  15.1088  15.1088
    15.4536  15.4536  17.0095  17.0095

          k = 0.2500 0.2500 0.2500 (   675 PWs)   bands (ev):

     8.4699  11.6244  11.6244  12.1055  12.2257  12.2257  15.1573  15.1573
    15.2018  15.2018  15.5778  21.4866

          k = 0.2500 0.2500 0.3750 (   658 PWs)   bands (ev):

     9.5101  11.2045  11.7279  12.0074  12.1229  12.2416  14.9131  15.0167
    15.3840  15.4048  16.3579  19.1847

          k = 0.2500 0.2500-0.5000 (   652 PWs)   bands (ev):

    10.4572  10.4572  11.8422  11.8422  12.2842  12.2842  14.8914  14.8914
    15.4557  15.4557  17.4372  17.4372

          k = 0.2500 0.3750 0.3750 (   664 PWs)   bands (ev):

    10.2538  11.0109  11.8341  11.8616  12.0568  12.2201  15.0792  15.1958
    15.3946  15.4223  17.2072  19.4674

          k = 0.2500 0.3750-0.5000 (   662 PWs)   bands (ev):

    10.6892  10.6892  11.7740  11.7741  12.3201  12.3201  15.1619  15.1619
    15.4576  15.4576  18.2514  18.2514

          k = 0.2500-0.5000-0.5000 (   660 PWs)   bands (ev):

    10.6798  10.6798  11.6999  11.6999  12.5767  12.5767  15.2525  15.2525
    15.4705  15.4705  18.6549  18.6550

          k = 0.3750 0.3750 0.3750 (   660 PWs)   bands (ev):

    11.0677  11.2923  11.6943  11.6943  11.8745  11.8745  15.3424  15.3424
    15.3827  15.3827  18.3397  21.3315

          k = 0.3750 0.3750-0.5000 (   666 PWs)   bands (ev):

    11.2624  11.2625  11.6892  11.6893  11.9112  11.9112  15.3549  15.3549
    15.4577  15.4577  19.6655  19.6655

          k = 0.3750-0.5000-0.5000 (   656 PWs)   bands (ev):

    11.3641  11.3641  11.6063  11.6063  11.9877  11.9877  15.4170  15.4170
    15.4874  15.4874  20.6313  20.6313

          k =-0.5000-0.5000-0.5000 (   672 PWs)   bands (ev):

    11.6740  11.6741  11.6741  11.6741  11.6741  11.6741  15.4944  15.4944
    15.4944  15.4944  22.8330  22.8330

     the Fermi energy is    13.2542 ev

!    total energy              =    -111.60700210 Ry
     estimated scf accuracy    <       0.00000071 Ry
     smearing contrib. (-TS)   =      -0.00128643 Ry
     internal energy E=F+TS    =    -111.60571567 Ry

     The total energy is F=E-TS. E is the sum of the following terms:
     one-electron contribution =      14.65906272 Ry
     hartree contribution      =      13.18412188 Ry
     xc contribution           =     -52.89976468 Ry
     ewald contribution        =     -86.54913559 Ry

     total magnetization       =     4.67 Bohr mag/cell
     absolute magnetization    =     4.99 Bohr mag/cell

     convergence has been achieved in  13 iterations

     Forces acting on atoms (cartesian axes, Ry/au):

     atom    1 type  1   force =     0.00000000    0.00000000    0.00000000
     atom    2 type  1   force =     0.00000000    0.00000000    0.00000000

     Total force =     0.000000     Total SCF correction =     0.000000


     Computing stress (Cartesian axis) and pressure

          total   stress  (Ry/bohr**3)                   (kbar)     P=       -9.63
  -0.00006548   0.00000000   0.00000000           -9.63        0.00        0.00
   0.00000000  -0.00006548   0.00000000            0.00       -9.63        0.00
   0.00000000   0.00000000  -0.00006548            0.00        0.00       -9.63


     Writing all to output data dir ./pwscf.save/ :
     XML data file, charge density, pseudopotentials, collected wavefunctions

     init_run     :      0.36s CPU      0.38s WALL (       1 calls)
     electrons    :      7.42s CPU      7.96s WALL (       1 calls)
     forces       :      0.09s CPU      0.10s WALL (       1 calls)
     stress       :      0.40s CPU      0.44s WALL (       1 calls)

     Called by init_run:
     wfcinit      :      0.15s CPU      0.16s WALL (       1 calls)
     potinit      :      0.03s CPU      0.03s WALL (       1 calls)
     hinit0       :      0.15s CPU      0.15s WALL (       1 calls)

     Called by electrons:
     c_bands      :      5.38s CPU      5.79s WALL (      13 calls)
     sum_band     :      1.39s CPU      1.48s WALL (      13 calls)
     v_of_rho     :      0.26s CPU      0.27s WALL (      14 calls)
     newd         :      0.38s CPU      0.43s WALL (      14 calls)
     mix_rho      :      0.02s CPU      0.03s WALL (      13 calls)

     Called by c_bands:
     init_us_2    :      0.16s CPU      0.17s WALL (    2030 calls)
     cegterg      :      5.05s CPU      5.44s WALL (     910 calls)

     Called by *egterg:
     cdiaghg      :      0.28s CPU      0.29s WALL (    3366 calls)
     h_psi        :      4.09s CPU      4.31s WALL (    3436 calls)
     s_psi        :      0.18s CPU      0.20s WALL (    3436 calls)
     g_psi        :      0.02s CPU      0.02s WALL (    2456 calls)

     Called by h_psi:
     h_psi:calbec :      0.18s CPU      0.26s WALL (    3436 calls)
     vloc_psi     :      3.71s CPU      3.82s WALL (    3436 calls)
     add_vuspsi   :      0.18s CPU      0.21s WALL (    3436 calls)

     General routines
     calbec       :      0.30s CPU      0.42s WALL (    5536 calls)
     fft          :      0.11s CPU      0.11s WALL (     388 calls)
     ffts         :      0.00s CPU      0.00s WALL (      54 calls)
     fftw         :      3.58s CPU      3.67s WALL (   68740 calls)
     interpolate  :      0.01s CPU      0.01s WALL (      28 calls)

     Parallel routines

     PWSCF        :      8.33s CPU      8.98s WALL


   This run was terminated on:  23:42:51  28Apr2025            

=------------------------------------------------------------------------------=
   JOB DONE.
=------------------------------------------------------------------------------=
