
     Program PWSCF v.7.4.1 starts on 29Apr2025 at 11:38:23 

     This program is part of the open-source Quantum ESPRESSO suite
     for quantum simulation of materials; please cite
         "P. Giannozzi et al., J. Phys.:Condens. Matter 21 395502 (2009);
         "P. Giannozzi et al., J. Phys.:Condens. Matter 29 465901 (2017);
         "P. Giannozzi et al., J. Chem. Phys. 152 154105 (2020);
          URL http://www.quantum-espresso.org", 
     in publications or presentations arising from this work. More details at
     http://www.quantum-espresso.org/quote

     Parallel version (MPI), running on     1 processors

     MPI processes distributed on     1 nodes
     0 MiB available memory on the printing compute node when the environment starts

     Waiting for input...
     Reading input from standard input

     Current dimensions of program PWSCF are:
     Max number of different atomic species (ntypx) = 10
     Max number of k-points (npk) =  40000
     Max angular momentum in pseudopotentials (lmaxx) =  4
     file Si.pbe-nd-rrkjus.UPF: wavefunction(s)  4S renormalized
     Found identity + ( -0.5000 -0.5000 -0.5000) symmetry
     This is a supercell, fractional translations are disabled

     Subspace diagonalization in iterative solution of the eigenvalue problem:
     a serial algorithm will be used


     G-vector sticks info
     --------------------
     sticks:   dense  smooth     PW     G-vecs:    dense   smooth      PW
     Sum         693     277     95                11537     2899     603

     Using Slab Decomposition



     bravais-lattice index     =            3
     lattice parameter (alat)  =       5.5571  a.u.
     unit-cell volume          =      85.8054 (a.u.)^3
     number of atoms/cell      =            2
     number of atomic types    =            1
     number of electrons       =        16.00
     number of Kohn-Sham states=           12
     kinetic-energy cutoff     =      40.0000  Ry
     charge density cutoff     =     400.0000  Ry
     scf convergence threshold =      1.0E-06
     mixing beta               =       0.4000
     number of iterations used =            8  plain     mixing
     Exchange-correlation=  SLA  PW   PBE  PBE
                           (   1   4   3   4   0   0   0)

     celldm(1)=   5.557100  celldm(2)=   0.000000  celldm(3)=   0.000000
     celldm(4)=   0.000000  celldm(5)=   0.000000  celldm(6)=   0.000000

     crystal axes: (cart. coord. in units of alat)
               a(1) = (   0.500000   0.500000   0.500000 )  
               a(2) = (  -0.500000   0.500000   0.500000 )  
               a(3) = (  -0.500000  -0.500000   0.500000 )  

     reciprocal axes: (cart. coord. in units 2 pi/alat)
               b(1) = (  1.000000  0.000000  1.000000 )  
               b(2) = ( -1.000000  1.000000  0.000000 )  
               b(3) = (  0.000000 -1.000000  1.000000 )  


     PseudoPot. # 1 for Si read from file:
     ./Si.pbe-nd-rrkjus.UPF
     MD5 check sum: 398036227a04b607635f6f5e8dfd8242
     Pseudo is Ultrasoft + core correction, Zval =  8.0
     Generated by new atomic code, or converted to UPF format
     Using radial grid of  957 points,  6 beta functions with: 
                l(1) =   0
                l(2) =   0
                l(3) =   1
                l(4) =   1
                l(5) =   2
                l(6) =   2
     Q(r) pseudized with 0 coefficients 


     atomic species   valence    mass     pseudopotential
     Si                8.00    55.84500     Si( 1.00)

     Starting magnetic structure 
     atomic species   magnetization
     Si              0.200

     12 Sym. Ops., with inversion, found



   Cartesian axes

     site n.     atom                  positions (alat units)
         1        Si     tau(   1) = (   0.0000000   0.0000000   0.0000000  )
         2        Si     tau(   2) = (  -0.2500000   0.2500000   0.7500000  )

     number of k points=    65  Gaussian smearing, width (Ry)=  0.0100
                       cart. coord. in units 2pi/alat
        k(    1) = (   0.0000000   0.0000000   0.0000000), wk =   0.0019531
        k(    2) = (   0.0000000  -0.1250000   0.1250000), wk =   0.0117188
        k(    3) = (   0.0000000  -0.2500000   0.2500000), wk =   0.0117188
        k(    4) = (   0.0000000  -0.3750000   0.3750000), wk =   0.0117188
        k(    5) = (   0.0000000   0.5000000  -0.5000000), wk =   0.0058594
        k(    6) = (  -0.1250000  -0.1250000   0.2500000), wk =   0.0234375
        k(    7) = (  -0.1250000  -0.2500000   0.3750000), wk =   0.0234375
        k(    8) = (  -0.1250000   0.6250000  -0.5000000), wk =   0.0234375
        k(    9) = (  -0.2500000   0.7500000  -0.5000000), wk =   0.0234375
        k(   10) = (  -0.2500000   0.6250000  -0.3750000), wk =   0.0234375
        k(   11) = (   0.0000000   0.0000000   0.2500000), wk =   0.0117188
        k(   12) = (   0.0000000  -0.1250000   0.3750000), wk =   0.0234375
        k(   13) = (   0.0000000  -0.2500000   0.5000000), wk =   0.0234375
        k(   14) = (   0.0000000   0.6250000  -0.3750000), wk =   0.0117188
        k(   15) = (  -0.1250000  -0.1250000   0.5000000), wk =   0.0234375
        k(   16) = (  -0.1250000   0.7500000  -0.3750000), wk =   0.0234375
        k(   17) = (  -0.2500000   0.2500000   0.2500000), wk =   0.0117188
        k(   18) = (  -0.2500000   0.7500000  -0.2500000), wk =   0.0117188
        k(   19) = (   0.6250000  -0.6250000   0.2500000), wk =   0.0117188
        k(   20) = (   0.5000000  -0.5000000   0.2500000), wk =   0.0117188
        k(   21) = (   0.5000000  -0.6250000   0.3750000), wk =   0.0234375
        k(   22) = (   0.0000000   0.0000000   0.5000000), wk =   0.0117188
        k(   23) = (   0.0000000  -0.1250000   0.6250000), wk =   0.0234375
        k(   24) = (   0.0000000   0.7500000  -0.2500000), wk =   0.0117188
        k(   25) = (  -0.1250000   0.8750000  -0.2500000), wk =   0.0234375
        k(   26) = (   0.5000000  -0.5000000   0.5000000), wk =   0.0039062
        k(   27) = (   0.0000000   0.0000000   0.7500000), wk =   0.0117188
        k(   28) = (   0.0000000   0.8750000  -0.1250000), wk =   0.0117188
        k(   29) = (   0.0000000   0.0000000  -1.0000000), wk =   0.0019531
        k(   30) = (   0.0000000   0.1250000   0.1250000), wk =   0.0117188
        k(   31) = (   0.0000000   0.2500000   0.2500000), wk =   0.0117188
        k(   32) = (   0.0000000   0.3750000   0.3750000), wk =   0.0117188
        k(   33) = (   0.0000000  -0.5000000  -0.5000000), wk =   0.0058594
        k(   34) = (  -0.1250000   0.1250000  -0.2500000), wk =   0.0117188
        k(   35) = (  -0.1250000  -0.2500000  -0.1250000), wk =   0.0117188
        k(   36) = (  -0.1250000   0.2500000  -0.3750000), wk =   0.0234375
        k(   37) = (  -0.1250000   0.3750000   0.2500000), wk =   0.0234375
        k(   38) = (  -0.1250000  -0.3750000  -0.2500000), wk =   0.0234375
        k(   39) = (  -0.1250000  -0.6250000   0.5000000), wk =   0.0234375
        k(   40) = (  -0.1250000  -0.5000000  -0.6250000), wk =   0.0234375
        k(   41) = (  -0.1250000   0.5000000   0.6250000), wk =   0.0234375
        k(   42) = (  -0.2500000  -0.7500000   0.5000000), wk =   0.0117188
        k(   43) = (  -0.2500000   0.5000000   0.7500000), wk =   0.0117188
        k(   44) = (  -0.2500000  -0.3750000  -0.6250000), wk =   0.0117188
        k(   45) = (  -0.2500000   0.3750000   0.6250000), wk =   0.0117188
        k(   46) = (   0.0000000   0.3750000   0.1250000), wk =   0.0234375
        k(   47) = (   0.0000000   0.5000000   0.2500000), wk =   0.0234375
        k(   48) = (   0.0000000  -0.3750000  -0.6250000), wk =   0.0117188
        k(   49) = (  -0.1250000   0.1250000  -0.5000000), wk =   0.0117188
        k(   50) = (  -0.1250000  -0.5000000  -0.1250000), wk =   0.0117188
        k(   51) = (  -0.1250000  -0.7500000   0.3750000), wk =   0.0234375
        k(   52) = (  -0.1250000  -0.3750000  -0.7500000), wk =   0.0234375
        k(   53) = (  -0.1250000   0.3750000   0.7500000), wk =   0.0234375
        k(   54) = (  -0.2500000   0.2500000  -0.2500000), wk =   0.0039062
        k(   55) = (  -0.2500000   0.2500000   0.7500000), wk =   0.0039062
        k(   56) = (   0.6250000   0.6250000  -0.2500000), wk =   0.0234375
        k(   57) = (   0.6250000   0.2500000   0.6250000), wk =   0.0117188
        k(   58) = (   0.5000000   0.5000000  -0.2500000), wk =   0.0117188
        k(   59) = (   0.5000000   0.3750000   0.6250000), wk =   0.0117188
        k(   60) = (   0.5000000  -0.3750000  -0.6250000), wk =   0.0117188
        k(   61) = (   0.0000000   0.6250000   0.1250000), wk =   0.0234375
        k(   62) = (   0.0000000  -0.2500000  -0.7500000), wk =   0.0117188
        k(   63) = (  -0.1250000  -0.8750000   0.2500000), wk =   0.0117188
        k(   64) = (  -0.1250000   0.2500000   0.8750000), wk =   0.0117188
        k(   65) = (   0.0000000  -0.1250000  -0.8750000), wk =   0.0117188

     Dense  grid:    11537 G-vectors     FFT dimensions: (  32,  32,  32)

     Smooth grid:     2899 G-vectors     FFT dimensions: (  20,  20,  20)

     Estimated max dynamical RAM per process >      58.01 MB
     Generating pointlists ...
     new r_m :   0.1786 (alat units)  0.9926 (a.u.) for type    1

     Initial potential from superposition of free atoms

     starting charge      15.9987, renormalised to      16.0000
     Starting wfcs are   12 randomized atomic wfcs

     total cpu time spent up to now is        0.4 secs

     Self-consistent Calculation

     iteration #  1     ecut=    40.00 Ry     beta= 0.40
     Davidson diagonalization with overlap
     ethr =  1.00E-02,  avg # of iterations =  5.6

     total cpu time spent up to now is        1.4 secs

     total energy              =    -111.23652591 Ry
     estimated scf accuracy    <       0.37652599 Ry

     total magnetization       =     0.91 Bohr mag/cell
     absolute magnetization    =     0.91 Bohr mag/cell

     iteration #  2     ecut=    40.00 Ry     beta= 0.40
     Davidson diagonalization with overlap
     ethr =  2.35E-03,  avg # of iterations =  3.1

     total cpu time spent up to now is        2.0 secs

     total energy              =    -111.34892763 Ry
     estimated scf accuracy    <       0.05222852 Ry

     total magnetization       =     0.59 Bohr mag/cell
     absolute magnetization    =     0.59 Bohr mag/cell

     iteration #  3     ecut=    40.00 Ry     beta= 0.40
     Davidson diagonalization with overlap
     ethr =  3.26E-04,  avg # of iterations =  4.1

     total cpu time spent up to now is        2.8 secs

     total energy              =    -111.37439019 Ry
     estimated scf accuracy    <       0.01585943 Ry

     total magnetization       =     0.39 Bohr mag/cell
     absolute magnetization    =     0.39 Bohr mag/cell

     iteration #  4     ecut=    40.00 Ry     beta= 0.40
     Davidson diagonalization with overlap
     ethr =  9.91E-05,  avg # of iterations =  2.3

     total cpu time spent up to now is        3.4 secs

     total energy              =    -111.37961986 Ry
     estimated scf accuracy    <       0.00191690 Ry

     total magnetization       =     0.10 Bohr mag/cell
     absolute magnetization    =     0.10 Bohr mag/cell

     iteration #  5     ecut=    40.00 Ry     beta= 0.40
     Davidson diagonalization with overlap
     c_bands:  1 eigenvalues not converged
     c_bands:  1 eigenvalues not converged
     c_bands:  1 eigenvalues not converged
     ethr =  1.20E-05,  avg # of iterations =  4.6

     total cpu time spent up to now is        4.2 secs

     total energy              =    -111.38050454 Ry
     estimated scf accuracy    <       0.00084583 Ry

     total magnetization       =     0.05 Bohr mag/cell
     absolute magnetization    =     0.05 Bohr mag/cell

     iteration #  6     ecut=    40.00 Ry     beta= 0.40
     Davidson diagonalization with overlap
     ethr =  5.29E-06,  avg # of iterations =  1.9

     total cpu time spent up to now is        4.8 secs

     total energy              =    -111.38056973 Ry
     estimated scf accuracy    <       0.00045357 Ry

     total magnetization       =     0.00 Bohr mag/cell
     absolute magnetization    =     0.01 Bohr mag/cell

     iteration #  7     ecut=    40.00 Ry     beta= 0.40
     Davidson diagonalization with overlap
     ethr =  2.83E-06,  avg # of iterations =  2.1

     total cpu time spent up to now is        5.4 secs

     total energy              =    -111.38066473 Ry
     estimated scf accuracy    <       0.00001149 Ry

     total magnetization       =     0.00 Bohr mag/cell
     absolute magnetization    =     0.01 Bohr mag/cell

     iteration #  8     ecut=    40.00 Ry     beta= 0.40
     Davidson diagonalization with overlap
     c_bands:  1 eigenvalues not converged
     ethr =  7.18E-08,  avg # of iterations =  5.4

     total cpu time spent up to now is        6.4 secs

     total energy              =    -111.38068404 Ry
     estimated scf accuracy    <       0.00000230 Ry

     total magnetization       =    -0.00 Bohr mag/cell
     absolute magnetization    =     0.00 Bohr mag/cell

     iteration #  9     ecut=    40.00 Ry     beta= 0.40
     Davidson diagonalization with overlap
     ethr =  1.44E-08,  avg # of iterations =  3.2

     Magnetic moment per site  (integrated on atomic sphere of radius R)
     atom   1 (R=0.179)  charge=  3.9771  magn=  0.0001
     atom   2 (R=0.179)  charge=  3.9772  magn=  0.0001

     total cpu time spent up to now is        7.1 secs

     End of self-consistent calculation

     Number of k-points >= 100: set verbosity='high' to print the bands.

     the Fermi energy is    26.9498 ev

!    total energy              =    -111.38068540 Ry
     estimated scf accuracy    <       0.00000020 Ry
     smearing contrib. (-TS)   =      -0.00059051 Ry
     internal energy E=F+TS    =    -111.38009489 Ry

     The total energy is F=E-TS. E is the sum of the following terms:
     one-electron contribution =      20.87515556 Ry
     hartree contribution      =      17.05971734 Ry
     xc contribution           =     -56.25459620 Ry
     ewald contribution        =     -93.06037159 Ry

     total magnetization       =    -0.00 Bohr mag/cell
     absolute magnetization    =     0.00 Bohr mag/cell

     convergence has been achieved in   9 iterations

     Forces acting on atoms (cartesian axes, Ry/au):

     atom    1 type  1   force =     0.00000000    0.00000000    0.00000000
     atom    2 type  1   force =     0.00000000    0.00000000    0.00000000

     Total force =     0.000000     Total SCF correction =     0.000000


     Computing stress (Cartesian axis) and pressure

          total   stress  (Ry/bohr**3)                   (kbar)     P=    -1110.24
  -0.00754725   0.02106254  -0.02106254        -1110.24     3098.41    -3098.41
   0.02106254  -0.00754725   0.02106254         3098.41    -1110.24     3098.41
  -0.02106254   0.02106254  -0.00754725        -3098.41     3098.41    -1110.24


     Writing all to output data dir ./out/si.save/ :
     XML data file, charge density, pseudopotentials, collected wavefunctions

     init_run     :      0.37s CPU      0.39s WALL (       1 calls)
     electrons    :      6.33s CPU      6.64s WALL (       1 calls)
     forces       :      0.07s CPU      0.09s WALL (       1 calls)
     stress       :      0.31s CPU      0.35s WALL (       1 calls)

     Called by init_run:
     wfcinit      :      0.18s CPU      0.19s WALL (       1 calls)
     potinit      :      0.02s CPU      0.03s WALL (       1 calls)
     hinit0       :      0.15s CPU      0.15s WALL (       1 calls)

     Called by electrons:
     c_bands      :      5.16s CPU      5.41s WALL (       9 calls)
     sum_band     :      0.88s CPU      0.92s WALL (       9 calls)
     v_of_rho     :      0.14s CPU      0.15s WALL (      10 calls)
     newd         :      0.15s CPU      0.17s WALL (      10 calls)
     mix_rho      :      0.01s CPU      0.01s WALL (       9 calls)

     Called by c_bands:
     init_us_2    :      0.13s CPU      0.14s WALL (    2730 calls)
     cegterg      :      4.92s CPU      5.16s WALL (    1170 calls)

     Called by *egterg:
     cdiaghg      :      0.47s CPU      0.48s WALL (    5376 calls)
     h_psi        :      3.86s CPU      3.99s WALL (    5506 calls)
     s_psi        :      0.16s CPU      0.18s WALL (    5506 calls)
     g_psi        :      0.01s CPU      0.01s WALL (    4206 calls)

     Called by h_psi:
     h_psi:calbec :      0.16s CPU      0.20s WALL (    5506 calls)
     vloc_psi     :      3.51s CPU      3.56s WALL (    5506 calls)
     add_vuspsi   :      0.18s CPU      0.20s WALL (    5506 calls)

     General routines
     calbec       :      0.26s CPU      0.35s WALL (    8886 calls)
     fft          :      0.07s CPU      0.07s WALL (     288 calls)
     ffts         :      0.00s CPU      0.00s WALL (      38 calls)
     fftw         :      3.29s CPU      3.33s WALL (   96544 calls)
     interpolate  :      0.01s CPU      0.01s WALL (      20 calls)

     Parallel routines

     PWSCF        :      7.14s CPU      7.63s WALL


   This run was terminated on:  11:38:31  29Apr2025            

=------------------------------------------------------------------------------=
   JOB DONE.
=------------------------------------------------------------------------------=
